<?xml version="1.0"?>
<VTKFile type="UnstructuredGrid" version="0.1" byte_order="BigEndian">
<UnstructuredGrid GhostLevel="0">
<Piece NumberOfPoints="47540" NumberOfCells="22488" ><Points>
<DataArray type="Float32" NumberOfComponents="3" format="ascii">
1.51677e+06	5.03358e+06	1	1.51678e+06	5.03353e+06	1	1.51682e+06	5.03359e+06	1	1.51683e+06	5.03354e+06	1	1.51677e+06	5.03358e+06	0	1.51678e+06	5.03353e+06	0	1.51682e+06	5.03359e+06	0	1.51683e+06	5.03354e+06	0	1.51687e+06	5.0336e+06	1	1.51688e+06	5.03355e+06	1	1.51687e+06	5.0336e+06	0	1.51688e+06	5.03355e+06	0	1.51691e+06	5.03361e+06	1	1.51693e+06	5.03357e+06	1	1.51691e+06	5.03361e+06	0	1.51693e+06	5.03357e+06	0	1.51696e+06	5.03363e+06	1	1.51698e+06	5.03358e+06	1	1.51696e+06	5.03363e+06	0	1.51698e+06	5.03358e+06	0	1.51701e+06	5.03364e+06	1	1.51702e+06	5.03359e+06	1	1.51701e+06	5.03364e+06	0	1.51702e+06	5.03359e+06	0	1.51706e+06	5.03365e+06	1	1.51707e+06	5.0336e+06	1	1.51706e+06	5.03365e+06	0	1.51707e+06	5.0336e+06	0	1.51711e+06	5.03366e+06	1	1.51712e+06	5.03361e+06	1	1.51711e+06	5.03366e+06	0	1.51712e+06	5.03361e+06	0	1.51716e+06	5.03367e+06	1	1.51717e+06	5.03363e+06	1	1.51716e+06	5.03367e+06	0	1.51717e+06	5.03363e+06	0	1.51721e+06	5.03369e+06	1	1.51722e+06	5.03364e+06	1	1.51721e+06	5.03369e+06	0	1.51722e+06	5.03364e+06	0	1.51725e+06	5.0337e+06	1	1.51727e+06	5.03365e+06	1	1.51725e+06	5.0337e+06	0	1.51727e+06	5.03365e+06	0	1.5173e+06	5.03371e+06	1	1.51731e+06	5.03366e+06	1	1.5173e+06	5.03371e+06	0	1.51731e+06	5.03366e+06	0	1.51735e+06	5.03372e+06	1	1.51736e+06	5.03367e+06	1	1.51735e+06	5.03372e+06	0	1.51736e+06	5.03367e+06	0	1.5174e+06	5.03374e+06	1	1.51741e+06	5.03369e+06	1	1.5174e+06	5.03374e+06	0	1.51741e+06	5.03369e+06	0	1.51745e+06	5.03375e+06	1	1.51746e+06	5.0337e+06	1	1.51745e+06	5.03375e+06	0	1.51746e+06	5.0337e+06	0	1.5175e+06	5.03376e+06	1	1.51751e+06	5.03371e+06	1	1.5175e+06	5.03376e+06	0	1.51751e+06	5.03371e+06	0	1.51755e+06	5.03377e+06	1	1.51756e+06	5.03372e+06	1	1.51755e+06	5.03377e+06	0	1.51756e+06	5.03372e+06	0	1.51759e+06	5.03378e+06	1	1.51761e+06	5.03374e+06	1	1.51759e+06	5.03378e+06	0	1.51761e+06	5.03374e+06	0	1.51764e+06	5.0338e+06	1	1.51765e+06	5.03375e+06	1	1.51764e+06	5.0338e+06	0	1.51765e+06	5.03375e+06	0	1.51769e+06	5.03381e+06	1	1.5177e+06	5.03376e+06	1	1.51769e+06	5.03381e+06	0	1.5177e+06	5.03376e+06	0	1.51774e+06	5.03382e+06	1	1.51775e+06	5.03377e+06	1	1.51774e+06	5.03382e+06	0	1.51775e+06	5.03377e+06	0	1.51779e+06	5.03383e+06	1	1.5178e+06	5.03378e+06	1	1.51779e+06	5.03383e+06	0	1.5178e+06	5.03378e+06	0	1.51784e+06	5.03384e+06	1	1.51785e+06	5.0338e+06	1	1.51784e+06	5.03384e+06	0	1.51785e+06	5.0338e+06	0	1.51788e+06	5.03386e+06	1	1.5179e+06	5.03381e+06	1	1.51788e+06	5.03386e+06	0	1.5179e+06	5.03381e+06	0	1.51793e+06	5.03387e+06	1	1.51795e+06	5.03382e+06	1	1.51793e+06	5.03387e+06	0	1.51795e+06	5.03382e+06	0	1.51798e+06	5.03388e+06	1	1.51799e+06	5.03383e+06	1	1.51798e+06	5.03388e+06	0	1.51799e+06	5.03383e+06	0	1.51803e+06	5.03389e+06	1	1.51804e+06	5.03384e+06	1	1.51803e+06	5.03389e+06	0	1.51804e+06	5.03384e+06	0	1.51808e+06	5.0339e+06	1	1.51809e+06	5.03386e+06	1	1.51808e+06	5.0339e+06	0	1.51809e+06	5.03386e+06	0	1.51813e+06	5.03392e+06	1	1.51814e+06	5.03387e+06	1	1.51813e+06	5.03392e+06	0	1.51814e+06	5.03387e+06	0	1.51818e+06	5.03393e+06	1	1.51819e+06	5.03388e+06	1	1.51818e+06	5.03393e+06	0	1.51819e+06	5.03388e+06	0	1.51822e+06	5.03394e+06	1	1.51824e+06	5.03389e+06	1	1.51822e+06	5.03394e+06	0	1.51824e+06	5.03389e+06	0	1.51827e+06	5.03395e+06	1	1.51829e+06	5.0339e+06	1	1.51827e+06	5.03395e+06	0	1.51829e+06	5.0339e+06	0	1.51832e+06	5.03396e+06	1	1.51833e+06	5.03392e+06	1	1.51832e+06	5.03396e+06	0	1.51833e+06	5.03392e+06	0	1.51837e+06	5.03398e+06	1	1.51838e+06	5.03393e+06	1	1.51837e+06	5.03398e+06	0	1.51838e+06	5.03393e+06	0	1.51842e+06	5.03399e+06	1	1.51843e+06	5.03394e+06	1	1.51842e+06	5.03399e+06	0	1.51843e+06	5.03394e+06	0	1.51847e+06	5.034e+06	1	1.51848e+06	5.03395e+06	1	1.51847e+06	5.034e+06	0	1.51848e+06	5.03395e+06	0	1.51852e+06	5.03401e+06	1	1.51853e+06	5.03396e+06	1	1.51852e+06	5.03401e+06	0	1.51853e+06	5.03396e+06	0	1.51856e+06	5.03403e+06	1	1.51858e+06	5.03398e+06	1	1.51856e+06	5.03403e+06	0	1.51858e+06	5.03398e+06	0	1.51861e+06	5.03404e+06	1	1.51862e+06	5.03399e+06	1	1.51861e+06	5.03404e+06	0	1.51862e+06	5.03399e+06	0	1.51866e+06	5.03405e+06	1	1.51867e+06	5.034e+06	1	1.51866e+06	5.03405e+06	0	1.51867e+06	5.034e+06	0	1.51871e+06	5.03406e+06	1	1.51872e+06	5.03401e+06	1	1.51871e+06	5.03406e+06	0	1.51872e+06	5.03401e+06	0	1.51876e+06	5.03407e+06	1	1.51877e+06	5.03402e+06	1	1.51876e+06	5.03407e+06	0	1.51877e+06	5.03402e+06	0	1.51881e+06	5.03409e+06	1	1.51882e+06	5.03404e+06	1	1.51881e+06	5.03409e+06	0	1.51882e+06	5.03404e+06	0	1.51886e+06	5.0341e+06	1	1.51887e+06	5.03405e+06	1	1.51886e+06	5.0341e+06	0	1.51887e+06	5.03405e+06	0	1.5189e+06	5.03411e+06	1	1.51892e+06	5.03406e+06	1	1.5189e+06	5.03411e+06	0	1.51892e+06	5.03406e+06	0	1.51895e+06	5.03412e+06	1	1.51896e+06	5.03407e+06	1	1.51895e+06	5.03412e+06	0	1.51896e+06	5.03407e+06	0	1.519e+06	5.03413e+06	1	1.51901e+06	5.03409e+06	1	1.519e+06	5.03413e+06	0	1.51901e+06	5.03409e+06	0	1.51905e+06	5.03415e+06	1	1.51906e+06	5.0341e+06	1	1.51905e+06	5.03415e+06	0	1.51906e+06	5.0341e+06	0	1.5191e+06	5.03416e+06	1	1.51911e+06	5.03411e+06	1	1.5191e+06	5.03416e+06	0	1.51911e+06	5.03411e+06	0	1.51915e+06	5.03417e+06	1	1.51916e+06	5.03412e+06	1	1.51915e+06	5.03417e+06	0	1.51916e+06	5.03412e+06	0	1.51919e+06	5.03418e+06	1	1.51921e+06	5.03413e+06	1	1.51919e+06	5.03418e+06	0	1.51921e+06	5.03413e+06	0	1.51924e+06	5.03419e+06	1	1.51926e+06	5.03415e+06	1	1.51924e+06	5.03419e+06	0	1.51926e+06	5.03415e+06	0	1.51929e+06	5.03421e+06	1	1.5193e+06	5.03416e+06	1	1.51929e+06	5.03421e+06	0	1.5193e+06	5.03416e+06	0	1.51934e+06	5.03422e+06	1	1.51935e+06	5.03417e+06	1	1.51934e+06	5.03422e+06	0	1.51935e+06	5.03417e+06	0	1.51939e+06	5.03423e+06	1	1.5194e+06	5.03418e+06	1	1.51939e+06	5.03423e+06	0	1.5194e+06	5.03418e+06	0	1.51944e+06	5.03424e+06	1	1.51945e+06	5.03419e+06	1	1.51944e+06	5.03424e+06	0	1.51945e+06	5.03419e+06	0	1.51949e+06	5.03426e+06	1	1.5195e+06	5.03421e+06	1	1.51949e+06	5.03426e+06	0	1.5195e+06	5.03421e+06	0	1.51953e+06	5.03427e+06	1	1.51955e+06	5.03422e+06	1	1.51953e+06	5.03427e+06	0	1.51955e+06	5.03422e+06	0	1.51958e+06	5.03428e+06	1	1.5196e+06	5.03423e+06	1	1.51958e+06	5.03428e+06	0	1.5196e+06	5.03423e+06	0	1.51963e+06	5.03429e+06	1	1.51964e+06	5.03424e+06	1	1.51963e+06	5.03429e+06	0	1.51964e+06	5.03424e+06	0	1.51968e+06	5.0343e+06	1	1.51969e+06	5.03426e+06	1	1.51968e+06	5.0343e+06	0	1.51969e+06	5.03426e+06	0	1.51973e+06	5.03432e+06	1	1.51974e+06	5.03427e+06	1	1.51973e+06	5.03432e+06	0	1.51974e+06	5.03427e+06	0	1.51987e+06	5.03435e+06	1	1.51989e+06	5.0343e+06	1	1.51992e+06	5.03436e+06	1	1.51993e+06	5.03432e+06	1	1.51987e+06	5.03435e+06	0	1.51989e+06	5.0343e+06	0	1.51992e+06	5.03436e+06	0	1.51993e+06	5.03432e+06	0	1.51997e+06	5.03438e+06	1	1.51998e+06	5.03433e+06	1	1.51997e+06	5.03438e+06	0	1.51998e+06	5.03433e+06	0	1.52002e+06	5.03439e+06	1	1.52003e+06	5.03434e+06	1	1.52002e+06	5.03439e+06	0	1.52003e+06	5.03434e+06	0	1.52007e+06	5.0344e+06	1	1.52008e+06	5.03435e+06	1	1.52007e+06	5.0344e+06	0	1.52008e+06	5.03435e+06	0	1.52012e+06	5.03441e+06	1	1.52013e+06	5.03436e+06	1	1.52012e+06	5.03441e+06	0	1.52013e+06	5.03436e+06	0	1.52017e+06	5.03442e+06	1	1.52018e+06	5.03438e+06	1	1.52017e+06	5.03442e+06	0	1.52018e+06	5.03438e+06	0	1.52021e+06	5.03444e+06	1	1.52023e+06	5.03439e+06	1	1.52021e+06	5.03444e+06	0	1.52023e+06	5.03439e+06	0	1.52026e+06	5.03445e+06	1	1.52027e+06	5.0344e+06	1	1.52026e+06	5.03445e+06	0	1.52027e+06	5.0344e+06	0	1.52031e+06	5.03446e+06	1	1.52032e+06	5.03441e+06	1	1.52031e+06	5.03446e+06	0	1.52032e+06	5.03441e+06	0	1.52036e+06	5.03447e+06	1	1.52037e+06	5.03442e+06	1	1.52036e+06	5.03447e+06	0	1.52037e+06	5.03442e+06	0	1.52041e+06	5.03448e+06	1	1.52042e+06	5.03444e+06	1	1.52041e+06	5.03448e+06	0	1.52042e+06	5.03444e+06	0	1.52046e+06	5.0345e+06	1	1.52047e+06	5.03445e+06	1	1.52046e+06	5.0345e+06	0	1.52047e+06	5.03445e+06	0	1.5205e+06	5.03451e+06	1	1.52052e+06	5.03446e+06	1	1.5205e+06	5.03451e+06	0	1.52052e+06	5.03446e+06	0	1.52055e+06	5.03452e+06	1	1.52057e+06	5.03447e+06	1	1.52055e+06	5.03452e+06	0	1.52057e+06	5.03447e+06	0	1.5206e+06	5.03453e+06	1	1.52061e+06	5.03448e+06	1	1.5206e+06	5.03453e+06	0	1.52061e+06	5.03448e+06	0	1.52065e+06	5.03455e+06	1	1.52066e+06	5.0345e+06	1	1.52065e+06	5.03455e+06	0	1.52066e+06	5.0345e+06	0	1.5207e+06	5.03456e+06	1	1.52071e+06	5.03451e+06	1	1.5207e+06	5.03456e+06	0	1.52071e+06	5.03451e+06	0	1.52075e+06	5.03457e+06	1	1.52076e+06	5.03452e+06	1	1.52075e+06	5.03457e+06	0	1.52076e+06	5.03452e+06	0	1.5208e+06	5.03458e+06	1	1.52081e+06	5.03453e+06	1	1.5208e+06	5.03458e+06	0	1.52081e+06	5.03453e+06	0	1.51679e+06	5.03348e+06	1	1.51684e+06	5.03349e+06	1	1.51679e+06	5.03348e+06	0	1.51684e+06	5.03349e+06	0	1.51689e+06	5.0335e+06	1	1.51689e+06	5.0335e+06	0	1.51694e+06	5.03352e+06	1	1.51694e+06	5.03352e+06	0	1.51699e+06	5.03353e+06	1	1.51699e+06	5.03353e+06	0	1.51704e+06	5.03354e+06	1	1.51704e+06	5.03354e+06	0	1.51708e+06	5.03355e+06	1	1.51708e+06	5.03355e+06	0	1.51713e+06	5.03357e+06	1	1.51713e+06	5.03357e+06	0	1.51718e+06	5.03358e+06	1	1.51718e+06	5.03358e+06	0	1.51723e+06	5.03359e+06	1	1.51723e+06	5.03359e+06	0	1.51728e+06	5.0336e+06	1	1.51728e+06	5.0336e+06	0	1.51733e+06	5.03361e+06	1	1.51733e+06	5.03361e+06	0	1.51738e+06	5.03363e+06	1	1.51738e+06	5.03363e+06	0	1.51742e+06	5.03364e+06	1	1.51742e+06	5.03364e+06	0	1.51747e+06	5.03365e+06	1	1.51747e+06	5.03365e+06	0	1.51752e+06	5.03366e+06	1	1.51752e+06	5.03366e+06	0	1.51757e+06	5.03367e+06	1	1.51757e+06	5.03367e+06	0	1.51762e+06	5.03369e+06	1	1.51762e+06	5.03369e+06	0	1.51767e+06	5.0337e+06	1	1.51767e+06	5.0337e+06	0	1.51772e+06	5.03371e+06	1	1.51772e+06	5.03371e+06	0	1.51776e+06	5.03372e+06	1	1.51776e+06	5.03372e+06	0	1.51781e+06	5.03374e+06	1	1.51781e+06	5.03374e+06	0	1.51786e+06	5.03375e+06	1	1.51786e+06	5.03375e+06	0	1.51791e+06	5.03376e+06	1	1.51791e+06	5.03376e+06	0	1.51796e+06	5.03377e+06	1	1.51796e+06	5.03377e+06	0	
[...]
<CellData Scalars="scalars">
<DataArray type="Int32" Name="nodeid" format="ascii">1	2	3	4	5	6	7	8	9	10	11	12	13	14	15	16	17	18	19	20	21	22	23	24	25	26	27	28	29	30	31	32	33	34	35	36	37	38	39	40	41	42	43	44	45	46	47	48	49	50	51	52	53	54	55	56	57	58	59	60	61	7969	7970	7972	7971	7973	7977	7981	7982	7984	7983	7985	7986	7988	7987	7979	7997	7998	8000	7999	8001	8002	8004	8003	7996	8005	8006	8008	8007	7989	7990	7992	7991	8013	8014	8016	8015	8010	8012	8017	8018	8020	8019	65	66	67	68	69	70	71	72	73	74	75	76	77	78	79	80	81	82	83	84	85	86	87	88	89	90	91	92	93	94	95	96	97	98	99	100	101	102	103	104	105	106	107	108	109	110	111	112	113	114	115	116	117	118	119	120	121	122	123	124	125	126	127	128	129	130	131	132	133	134	135	136	137	138	139	140	141	142	143	144	8021	8022	8024	8023	8029	8030	8032	8031	8037	8038	8040	8039	8034	8036	8041	8042	8044	8043	8061	8062	8064	8063	8058	8060	8059	8045	8049	8050	8052	8051	8053	8054	8056	8055	8047	8065	8066	8068	8067	148	149	150	151	152	153	154	155	156	157	158	159	160	161	162	163	164	165	166	167	168	169	170	171	172	173	174	175	176	177	178	179	180	181	182	183	184	185	186	187	188	189	190	191	192	193	194	195	196	197	198	199	200	201	202	203	204	205	206	207	208	209	210	211	212	213	214	215	216	217	218	219	220	221	222	223	224	225	226	227	8069	8070	8072	8071	8077	8081	8082	8084	8083	8085	8086	8088	8087	8079	8089	8090	8092	8091	8105	8106	8108	8107	8093	8097	8098	8100	8099	8101	8102	8104	8103	8095	8109	8110	8112	8111	231	232	233	234	235	236	237	238	239	240	241	242	243	244	245	246	247	248	249	250	251	252	253	254	255	256	257	258	259	260	261	262	263	264	265	266	267	268	269	270	271	272	273	274	275	276	277	278	279	280	281	282	283	284	285	286	287	288	289	290	291	292	293	294	295	296	297	298	299	300	301	302	303	304	305	306	307	308	309	310	8113	8114	8116	8115	8121	8125	8126	8128	8127	8129	8130	8132	8131	8123	8133	8134	8136	8135	8149	8150	8152	8153	8154	8156	8155	8137	8141	8142	8144	8143	8145	8146	8148	8147	8139	8157	8158	8160	8159	314	315	316	317	318	319	320	321	322	323	324	325	326	327	328	329	330	331	332	333	334	335	336	337	338	339	340	341	342	343	344	345	346	347	348	349	350	351	352	353	354	355	356	357	358	359	360	361	362	363	364	365	366	367	368	369	370	371	372	373	374	375	376	377	378	379	380	381	382	383	384	385	386	387	388	389	390	391	392	393	8161	8162	8164	8163	8169	8170	8172	8171	8177	8178	8180	8179	8174	8185	8186	8188	8187	8181	8182	8184	8183	8189	8193	8194	8196	8195	8197	8198	8200	8199	8191	8167	8205	8206	8208	8207	8202	8204	8209	8210	8212	8213	8214	8216	8215	397	398	399	400	401	402	403	404	405	406	407	408	409	410	411	412	413	414	415	416	417	418	419	420	421	422	423	424	425	426	427	428	429	430	431	432	433	434	435	436	437	438	439	440	441	442	443	444	445	446	447	448	449	450	451	452	453	454	455	456	457	458	459	460	461	462	463	464	465	466	467	468	469	470	471	472	473	474	475	476	477	8217	8221	8222	8224	8223	8225	8226	8228	8227	8219	8237	8238	8240	8239	8234	8236	8241	8242	8244	8243	8230	8265	8266	8268	8267	8249	8250	8252	8251	8253	8254	8256	8255	8261	8262	8264	8263	8257	8258	8260	8259	8269	8270	8272	8271	481	482	483	484	485	486	487	488	489	490	491	492	493	494	495	496	497	498	499	500	501	502	503	504	505	506	507	508	509	510	511	512	513	514	515	516	517	518	519	520	521	522	523	524	525	526	527	528	529	530	531	532	533	534	535	536	537	538	539	540	541	542	543	544	545	546	547	548	549	550	551	552	553	554	555	556	557	558	559	560	8273	8277	8278	8280	8279	8281	8282	8284	8283	8275	8293	8294	8296	8295	8290	8292	8297	8298	8300	8299	8286	8288	8305	8306	8308	8307	8302	8304	8309	8310	8312	8311	563	564	565	566	567	568	569	570	571	572	573	574	575	576	577	578	579	580	581	582	583	584	585	586	587	588	589	590	591	592	593	594	595	596	597	598	599	600	601	602	603	604	605	606	607	608	609	610	611	612	613	614	615	616	617	618	619	620	621	622	623	624	625	626	627	628	629	630	631	632	633	634	635	636	637	638	639	640	641	642	643	8313	8317	8318	8320	8319	8321	8322	8324	8323	8315	8333	8334	8336	8335	8330	8332	8337	8338	8340	8339	8326	8328	8345	8346	8348	8347	8342	8344	8349	8350	8352	8351	646	647	648	649	650	651	652	653	654	655	656	657	658	659	660	661	662	663	664	665	666	667	668	669	670	671	672	673	674	675	676	677	678	679	680	681	682	683	684	685	686	687	688	689	690	691	692	693	694	695	696	697	698	699	700	701	702	703	704	705	706	707	708	709	710	711	712	713	714	715	716	717	718	719	720	721	722	723	724	725	726	8353	8357	8358	8360	8359	8356	8355	8369	8370	8372	8371	8366	8377	8378	8380	8379	8373	8374	8376	8375	8381	8382	8384	8383	8397	8398	8400	8401	8402	8404	8403	8385	8389	8390	8392	8391	8393	8394	8396	8395	8387	8405	8406	8408	8407	730	731	732	733	734	735	736	737	738	739	740	741	742	743	744	745	746	747	748	749	750	751	752	753	754	755	756	757	758	759	760	761	762	763	764	765	766	767	768	769	770	771	772	773	774	775	776	777	778	779	780	781	782	783	784	785	786	787	788	789	790	791	792	793	794	795	796	797	798	799	800	801	802	803	804	805	806	807	808	809	8409	8410	8412	8411	8417	8418	8420	8419	8425	8426	8428	8427	8422	8433	8434	8436	8435	8429	8430	8432	8431	8437	8441	8442	8444	8443	8445	8446	8448	8447	8439	8415	8453	8454	8456	8455	8450	8452	8457	8458	8460	8461	8462	8464	8463	813	814	815	816	817	818	819	820	821	822	823	824	825	826	827	828	829	830	831	832	833	834	835	836	837	838	839	840	841	842	843	844	845	846	847	848	849	850	851	852	853	854	855	856	857	858	859	860	861	862	863	864	865	866	867	868	869	870	871	872	873	874	875	876	877	878	879	880	881	882	883	884	885	886	887	888	889	890	891	892	893	8465	8469	8470	8472	8471	8468	8467	8481	8482	8484	8483	8478	8489	8490	8492	8491	8485	8486	8488	8487	8493	8494	8496	8495	8509	8510	8512	8513	8514	8516	8515	8497	8501	8502	8504	8503	8505	8506	8508	8507	8499	8517	8518	8520	8519	8521	8522	8524	8523	898	899	900	901	902	903	904	905	906	907	908	909	910	911	912	913	914	915	916	917	918	919	920	921	922	923	924	925	926	927	928	929	930	931	932	933	934	935	936	937	938	939	940	941	942	943	944	945	946	947	948	949	950	951	952	953	954	955	956	957	958	959	960	961	962	963	964	965	966	967	968	969	970	971	972	973	974	975	976	8525	8526	8528	8527	8533	8534	8536	8535	8541	8542	8544	8543	8545	8546	8548	8547	8549	8550	8552	8551	8539	8553	8554	8556	8555	8531	8561	8562	8569	8570	8572	8571	8565	8566	8568	8567	8573	8574	8576	8575	8589	8590	8592	8591	8593	8594	8596	8595	8588	8587	8577	8581	8582	8584	8583	8580	8579	8601	8602	8604	8603	8598	8621	8622	8629	8630	8632	8631	8625	8626	8628	8627	8609	8610	8612	8611	8606	8617	8618	8620	8619	8613	8614	8616	8615	8633	8634	8636	8637	8638	8640	8639	982	983	984	985	986	987	988	989	990	991	992	993	994	995	996	997	998	999	1000	1001	1002	1003	1004	1005	1006	1007	1008	1009	1010	1011	1012	1013	1014	1015	1016	1017	1018	1019	1020	1021	1022	1023	1024	1025	1026	1027	1028	1029	1030	1031	1032	1033	1034	1035	1036	1037	1038	1039	1040	1041	1042	1043	1044	1045	1046	1047	1048	1049	1050	1051	1052	1053	1054	1055	1056	1057	1058	1059	1060	8641	8642	8644	8643	8645	8646	8648	8647	8653	8654	8656	8655	8657	8661	8662	8664	8663	8665	8666	8668	8667	8659	8669	8670	8672	8671	8651	8677	8678	8680	8681	8682	8684	8683	8674	8676	8689	8690	8692	8691	8686	8688	8693	8694	8696	8695	1065	1066	1067	1068	1069	1070	1071	1072	1073	1074	1075	1076	1077	1078	1079	1080	1081	1082	1083	1084	1085	1086	1087	1088	1089	1090	1091	1092	1093	1094	1095	1096	1097	1098	1099	1100	1101	1102	1103	1104	1105	1106	1107	1108	1109	1110	1111	1112	1113	1114	1115	1116	1117	1118	1119	1120	1121	1122	1123	1124	1125	1126	1127	1128	1129	1130	1131	1132	1133	1134	1135	1136	1137	1138	1139	1140	1141	1142	1143	1144	1145	8697	8701	8702	8704	8703	8705	8709	8710	8712	8711	8713	8714	8716	8715	8707	8699	8725	8726	8728	8727	8722	8724	8729	8730	8732	8731	8718	8720	8737	8738	8740	8739	8734	8736	8735	1148	1149	1150	1151	1152	1153	1154	1155	1156	1157	1158	1159	1160	1161	1162	1163	1164	1165	1166	1167	1168	1169	1170	1171	1172	1173	1174	1175	1176	1177	1178	1179	1180	1181	1182	1183	1184	1185	1186	1187	1188	1189	1190	1191	1192	1193	1194	1195	1196	1197	1198	1199	1200	1201	1202	1203	1204	1205	1206	1207	1208	1209	1210	1211	1212	1213	1214	1215	1216	1217	1218	1219	1220	1221	1222	1223	1224	1225	1226	1227	8741	8742	8744	8743	8749	8750	8752	8751	8753	8757	8758	8760	8759	8765	8766	8768	8767	8761	8762	8764	8763	8785	8786	8788	8787	8782	8784	8783	8769	8773	8774	8776	8775	8777	8778	8780	8779	8771	8793	8794	8796	8795	8790	8792	8791	1231	1232	1233	1234	1235	1236	1237	1238	1239	1240	1241	1242	1243	1244	1245	1246	1247	1248	1249	1250	1251	1252	1253	1254	1255	1256	1257	1258	1259	1260	1261	1262	1263	1264	1265	1266	1267	1268	1269	1270	1271	1272	1273	1274	1275	1276	1277	1278	1279	1280	1281	1282	1283	1284	1285	1286	1287	1288	1289	1290	1291	1292	1293	1294	1295	1296	1297	1298	1299	1300	1301	1302	1303	1304	1305	1306	1307	1308	1309	1310	8797	8801	8802	8804	8803	8805	8806	8808	8807	8799	8817	8818	8820	8819	8821	8822	8824	8823	8816	8825	8826	8828	8827	8829	8830	8832	8831	8849	8850	8852	8851	8837	8838	8840	8839	8834	8845	8846	8848	8847	8841	8842	8844	8843	8853	8854	8856	8855	1314	1315	1316	1317	1318	1319	1320	1321	1322	1323	1324	1325	1326	1327	1328	1329	1330	1331	1332	1333	1334	1335	1336	1337	1338	1339	1340	1341	1342	1343	1344	1345	1346	1347	1348	1349	1350	1351	1352	1353	1354	1355	1356	1357	1358	1359	1360	1361	1362	1363	1364	1365	1366	1367	1368	1369	1370	1371	1372	1373	1374	1375	1376	1377	1378	1379	1380	1381	1382	1383	1384	1385	1386	1387	1388	1389	1390	1391	1392	1393	8857	8858	8860	8859	8865	8869	8870	8872	8871	8873	8874	8876	8875	8867	8877	8878	8880	8881	8882	8884	8883	8893	8894	8896	8895	8890	8901	8902	8904	8903	8897	8898	8900	8899	8885	8886	8888	8887	8905	8906	8908	8909	8910	8912	8911	1397	1398	1399	1400	1401	1402	1403	1404	1405	1406	1407	1408	1409	1410	1411	1412	1413	1414	1415	1416	1417	1418	1419	1420	1421	1422	1423	1424	1425	1426	1427	1428	1429	1430	1431	1432	1433	1434	1435	1436	1437	1438	1439	1440	1441	1442	1443	1444	1445	1446	1447	1448	1449	1450	1451	1452	1453	1454	1455	1456	1457	1458	1459	1460	1461	1462	1463	1464	1465	1466	1467	1468	1469	1470	1471	1472	1473	1474	1475	1476	1477	8913	8917	8921	8922	8924	8923	8920	8919	8916	8915	8933	8934	8936	8935	8930	8941	8942	8944	8943	8937	8938	8940	8939	8945	8946	8948	8947	8961	8962	8964	8963	8949	8953	8954	8956	8955	8957	8958	8960	8959	8951	8965	8966	8968	8967	1481	1482	1483	1484	1485	1486	1487	1488	1489	1490	1491	1492	1493	1494	1495	1496	1497	1498	1499	1500	1501	1502	1503	1504	1505	1506	1507	1508	1509	1510	1511	1512	1513	1514	1515	1516	1517	1518	1519	1520	1521	1522	1523	1524	1525	1526	1527	1528	1529	1530	1531	1532	1533	1534	1535	1536	1537	1538	1539	1540	1541	1542	1543	1544	1545	1546	1547	1548	1549	1550	1551	1552	1553	1554	1555	1556	1557	1558	1559	1560	8969	8970	8972	8971	8977	8981	8982	8984	8983	8985	8986	8988	8987	8979	8989	8990	8992	8991	9005	9006	9008	9007	8993	8997	8998	9000	8999	9001	9002	9004	9003	8995	9009	9010	9012	9011	1564	1565	1566	1567	1568	1569	1570	1571	1572	1573	1574	1575	1576	1577	1578	1579	1580	1581	1582	1583	1584	1585	1586	1587	1588	1589	1590	1591	1592	1593	1594	1595	1596	1597	1598	1599	1600	1601	1602	1603	1604	1605	1606	1607	1608	1609	1610	1611	1612	1613	1614	1615	1616	1617	1618	1619	1620	1621	1622	1623	1624	1625	1626	1627	1628	1629	1630	1631	1632	1633	1634	1635	1636	1637	1638	1639	1640	1641	1642	1643	9013	9014	9016	9015	9021	9025	9026	9028	9027	9029	9030	9032	9031	9023	9033	9034	9036	9035	9049	9050	9052	9051	9037	9041	9042	9044	9043	9045	9046	9048	9047	9039	9053	9054	9056	9055	1647	1648	1649	1650	1651	1652	1653	1654	1655	1656	1657	1658	1659	1660	1661	1662	1663	1664	1665	1666	1667	1668	1669	1670	1671	1672	1673	1674	1675	1676	1677	1678	1679	1680	1681	1682	1683	1684	1685	1686	1687	1688	1689	1690	1691	1692	1693	1694	1695	1696	1697	1698	1699	1700	1701	1702	1703	1704	1705	1706	1707	1708	1709	1710	1711	1712	1713	1714	1715	1716	1717	1718	1719	1720	1721	1722	1723	1724	1725	1726	9057	9058	9060	9059	9065	9069	9070	9072	9071	9073	9074	9076	9075	9067	9077	9078	9080	9079	9093	9094	9096	9095	9081	9085	9086	9088	9087	9089	9090	9092	9091	9083	9097	9098	9100	9099	1730	1731	1732	1733	1734	1735	1736	1737	1738	1739	1740	1741	1742	1743	1744	1745	1746	1747	1748	1749	1750	1751	1752	1753	1754	1755	1756	1757	1758	1759	1760	1761	1762	1763	1764	1765	1766	1767	1768	1769	1770	1771	1772	1773	1774	1775	1776	1777	1778	1779	1780	1781	1782	1783	1784	1785	1786	1787	1788	1789	1790	1791	1792	1793	1794	1795	1796	1797	1798	1799	1800	1801	1802	1803	1804	1805	1806	1807	1808	1809	9101	9102	9104	9103	9109	9113	9114	9116	9115	9117	9118	9120	9119	9111	9121	9122	9124	9125	9126	9128	9127	9137	9138	9140	9139	9141	9142	9144	9143	9145	9146	9148	9147	9135	9129	9130	9132	9131	9149	9150	9165	9166	9168	9167	9153	9154	9161	9162	9164	9163	9157	9158	9160	9159	9169	9170	9172	9171	1814	1815	1816	1817	1818	1819	1820	1821	1822	1823	1824	1825	1826	1827	1828	1829	1830	1831	1832	1833	1834	1835	1836	1837	1838	1839	1840	1841	1842	1843	1844	1845	1846	1847	1848	1849	1850	1851	1852	1853	1854	1855	1856	1857	1858	1859	1860	1861	1862	1863	1864	1865	1866	1867	1868	1869	1870	1871	1872	1873	1874	1875	1876	1877	1878	1879	1880	1881	1882	1883	1884	1885	1886	1887	1888	1889	1890	1891	1892	1893	9173	9177	9178	9180	9179	9176	9175	9185	9189	9190	9192	9191	9188	9187	9197	9198	9200	9199	9194	9196	9201	9202	9204	9203	9213	9214	9216	9215	9217	9218	9220	9219	9221	9222	9224	9223	9211	9205	9206	9208	9207	9225	9226	9228	9229	9230	9232	9233	9234	9236	9235	1897	1898	1899	1900	1901	1902	1903	1904	1905	1906	1907	1908	1909	1910	1911	1912	1913	1914	1915	1916	1917	1918	1919	1920	1921	1922	1923	1924	1925	1926	1927	1928	1929	1930	1931	1932	1933	1934	1935	1936	1937	1938	1939	1940	1941	1942	1943	1944	1945	1946	1947	1948	1949	1950	1951	1952	1953	1954	1955	1956	1957	1958	1959	1960	1961	1962	1963	1964	1965	1966	1967	1968	1969	1970	1971	1972	1973	1974	1975	1976	1977	9237	9241	9242	9244	9243	9240	9239	9253	9254	9256	9255	9250	9261	9262	9264	9263	9257	9258	9260	9259	9265	9266	9268	9267	9281	9282	9284	9283	9269	9273	9274	9276	9275	9277	9278	9280	9279	9271	9285	9286	9288	9287	1981	1982	1983	1984	1985	1986	1987	1988	1989	1990	1991	1992	1993	1994	1995	1996	1997	1998	1999	2000	2001	2002	2003	2004	2005	2006	2007	2008	2009	2010	2011	2012	2013	2014	2015	2016	2017	2018	2019	2020	2021	2022	2023	2024	2025	2026	2027	2028	2029	2030	2031	2032	2033	2034	2035	2036	2037	2038	2039	2040	2041	2042	2043	2044	2045	2046	2047	2048	2049	2050	2051	2052	2053	2054	2055	2056	2057	2058	2059	2060	9289	9290	9292	9291	9297	9301	9302	9304	9303	9305	9306	9308	9307	9299	9309	9310	9312	9311	9325	9326	9328	9327	9313	9317	9318	9320	9319	9321	9322	9324	9323	9315	9329	9330	9332	9331	2064	2065	2066	2067	2068	2069	2070	2071	2072	2073	2074	2075	2076	2077	2078	2079	2080	2081	2082	2083	2084	2085	2086	2087	2088	2089	2090	2091	2092	2093	2094	2095	2096	2097	2098	2099	2100	2101	2102	2103	2104	2105	2106	2107	2108	2109	2110	2111	2112	2113	2114	2115	2116	2117	2118	2119	2120	2121	2122	2123	2124	2125	2126	2127	2128	9333	9334	9336	9335	9337	9338	9340	9339	9341	9342	9344	9343	9345	9346	9348	9347	9349	9350	9352	9351	9353	9354	9356	9355	9357	9358	9360	9359	9361	9362	9364	9363	9365	9366	9368	9367	9369	9370	9372	9371	9373	9374	9376	9375	9377	9378	9380	9379	9381	9382	9384	9383	9385	9386	9388	9387	9389	9390	9392	9391	9393	9397	9398	9401	9402	9404	9403	9399	9413	9417	9418	9420	9419	9425	9426	9428	9427	9421	9422	9424	9423	9405	9406	9409	9410	9412	9411	9407	9437	9438	9440	9439	9441	9442	9444	9443	9436	9445	9446	9448	9447	9449	9450	9452	9451	9432	9453	9454	9456	9455	9457	9458	9460	9459	9461	9462	9464	9463	9465	9466	9468	9467	2149	2150	2151	2152	2153	2154	2155	2156	2157	2158	2159	2160	2161	2162	2163	2164	2165	2166	2167	2168	2169	2170	2171	2172	2173	2174	2175	2176	2177	2178	2179	2180	2181	2182	2183	2184	2185	2186	2187	2188	2189	2190	2191	2192	2193	2194	2195	2196	2197	2198	2199	2200	2201	2202	2203	2204	2205	2206	2207	2208	9469	9470	9472	9471	9473	9474	9476	9475	9477	9478	9480	9479	9481	9482	9484	9483	9485	9486	9488	9487	9489	9490	9492	9491	9493	9494	9496	9495	9497	9498	9500	9499	9501	9502	9504	9503	9505	9506	9508	9507	9509	9510	9512	9511	9513	9514	9516	9515	9517	9518	9520	9519	9521	9522	9524	9523	9525	9526	9528	9527	9529	9530	9532	9531	9533	9534	9536	9535	9537	9541	9542	9544	9543	9545	9549	9550	9552	9551	9553	9554	9556	9555	9547	9539	9565	9566	9568	9567	9569	9570	9572	9571	9564	9573	9574	9576	9575	9577	9578	9580	9579	9593	9594	9596	9595	9585	9586	9588	9587	9582	9584	9589	9590	9592	9591	9597	9598	9605	9606	9608	9607	9601	9602	9604	9603	9609	9610	9617	9618	9620	9619	9613	9614	9616	9615	9621	9622	9633	9634	9641	9642	9644	9643	9637	9638	9640	9639	9625	9626	9629	9630	9632	9631	9627	9645	9646	9661	9662	9669	9670	9672	9671	9665	9666	9668	9667	9649	9650	9657	9658	9660	9659	9653	9654	9656	9655	9673	9674	9689	9690	9692	9691	9677	9678	9685	9686	9688	9687	9681	9682	9684	9683	9693	9694	9696	9695	9697	9698	9700	9699	9701	9702	9704	9703	2236	2237	2238	2239	2240	2241	2242	2243	2244	2245	2246	2247	2248	2249	2250	2251	2252	2253	2254	2255	2256	2257	2258	2259	2260	2261	2262	2263	2264	2265	2266	2267	2268	2269	2270	2271	2272	2273	2274	2275	2276	2277	2278	2279	2280	2281	2282	2283	2284	2285	2286	2287	2288	2289	9705	9706	9708	9707	9709	9710	9712	9711	9713	9714	9716	9715	9717	9718	9720	9719	9721	9722	9724	9723	9725	9726	9728	9727	9729	9730	9732	9731	9733	9734	9736	9735	9737	9738	9740	9739	9741	9742	9744	9743	9745	9746	9748	9747	9749	9750	9752	9751	9753	9754	9756	9755	9757	9758	9760	9759	9761	9762	9764	9763	9765	9766	9768	9767	9769	9770	9772	9771	9773	9774	9776	9775	9777	9778	9780	9779	9781	9785	9786	9788	9787	9784	9783	9797	9798	9800	9799	9801	9802	9804	9803	9796	9795	9809	9810	9812	9811	9813	9814	9816	9815	9808	9807	9792	9791	9825	9826	9828	9827	9829	9830	9832	9831	9824	9833	9834	9836	9835	9841	9842	9844	9843	9845	9846	9848	9847	9849	9850	9852	9851	9839	9857	9858	9860	9859	9853	9854	9856	9855	9865	9869	9870	9872	9871	9877	9878	9880	9879	9873	9874	9876	9875	9885	9886	9888	9887	9889	9890	9892	9891	9884	9883	9864	9893	9894	9896	9895	9905	9906	9908	9907	9909	9910	9912	9911	9904	9903	9913	9914	9916	9915	9900	9899	9921	9922	9924	9923	9925	9926	9928	9927	9920	9919	9933	9937	9938	9940	9939	9936	9935	9945	9946	9948	9947	9949	9950	9952	9951	9953	9954	9956	9955	9943	9957	9958	9960	9959	9931	9965	9966	9968	9969	9970	9972	9971	9973	9974	9976	9975	9993	9994	9996	9995	9990	10001	10002	10004	10003	9997	9998	10000	9999	9981	9982	9984	9983	9985	9986	9988	9987	9980	9979	10005	10006	10008	10009	10010	10012	10011	10013	10014	10016	10015	2319	2320	2321	2322	2323	2324	2325	2326	2327	2328	2329	2330	2331	2332	2333	2334	2335	2336	2337	2338	2339	2340	2341	2342	2343	2344	2345	2346	2347	2348	2349	2350	2351	2352	2353	2354	2355	2356	2357	2358	2359	2360	2361	2362	2363	2364	2365	2366	2367	2368	2369	2370	2371	2372	10017	10018	10020	10019	10021	10022	10024	10023	10025	10026	10028	10027	10029	10030	10032	10031	10033	10034	10036	10035	10037	10038	10040	10039	10041	10042	10044	10043	10045	10046	10048	10047	10049	10050	10052	10051	10053	10054	10056	10055	10057	10058	10060	10059	10061	10062	10064	10063	10065	10066	10068	10067	10069	10070	10072	10071	10073	10074	10076	10075	10077	10078	10080	10079	10081	10082	10084	10083	10085	10086	10088	10087	10089	10090	10092	10091	10093	10094	10096	10095	10097	10098	10100	10099	10101	10102	10104	10103	10105	10106	10108	10107	10109	10110	10112	10111	10113	10114	10116	10115	10117	10118	10120	10119	10121	10125	10129	10130	10132	10131	10128	10127	10124	10123	10141	10142	10144	10143	10145	10146	10148	10147	10149	10150	10152	10151	10139	10153	10154	10156	10157	10158	10160	10159	10169	10170	10172	10171	10173	10174	10176	10175	10177	10178	10180	10179	10167	10161	10162	10164	10163	10181	10182	10197	10198	10200	10199	10185	10186	10193	10194	10196	10195	10189	10190	10192	10191	10201	10202	10204	10203	2403	2404	2405	2406	2407	2408	2409	2410	2411	2412	2413	2414	2415	2416	2417	2418	2419	2420	2421	2422	2423	2424	2425	2426	2427	2428	2429	2430	2431	2432	2433	2434	2435	2436	2437	2438	2439	2440	2441	2442	2443	2444	2445	2446	2447	2448	2449	2450	2451	2452	2453	2454	10205	10206	10208	10207	10209	10210	10212	10211	10213	10214	10216	10215	10217	10218	10220	10219	10221	10222	10224	10223	10225	10226	10228	10227