<?xml version="1.0"?>
<VTKFile type="UnstructuredGrid" version="0.1" byte_order="BigEndian">
<UnstructuredGrid GhostLevel="0">
<Piece NumberOfPoints="4302" NumberOfCells="1866" ><Points>
<DataArray type="Float32" NumberOfComponents="3" format="ascii">
0	100000	1	0	95000	1	5000	100000	1	5000	95000	1	0	100000	0	0	95000	0	5000	100000	0	5000	95000	0	10000	100000	1	10000	95000	1	10000	100000	0	10000	95000	0	15000	100000	1	15000	95000	1	15000	100000	0	15000	95000	0	20000	100000	1	20000	95000	1	20000	100000	0	20000	95000	0	25000	100000	1	25000	95000	1	25000	100000	0	25000	95000	0	30000	100000	1	30000	95000	1	30000	100000	0	30000	95000	0	35000	100000	1	35000	95000	1	35000	100000	0	35000	95000	0	40000	100000	1	40000	95000	1	40000	100000	0	40000	95000	0	45000	100000	1	45000	95000	1	45000	100000	0	45000	95000	0	50000	100000	1	50000	95000	1	50000	100000	0	50000	95000	0	55000	100000	1	55000	95000	1	55000	100000	0	55000	95000	0	60000	100000	1	60000	95000	1	60000	100000	0	60000	95000	0	65000	100000	1	65000	95000	1	65000	100000	0	65000	95000	0	70000	100000	1	70000	95000	1	70000	100000	0	70000	95000	0	75000	100000	1	75000	95000	1	75000	100000	0	75000	95000	0	80000	100000	1	80000	95000	1	80000	100000	0	80000	95000	0	85000	100000	1	85000	95000	1	85000	100000	0	85000	95000	0	90000	100000	1	90000	95000	1	90000	100000	0	90000	95000	0	95000	100000	1	95000	95000	1	95000	100000	0	95000	95000	0	100000	100000	1	100000	95000	1	100000	100000	0	100000	95000	0	105000	100000	1	105000	95000	1	105000	100000	0	105000	95000	0	110000	100000	1	110000	95000	1	110000	100000	0	110000	95000	0	115000	100000	1	115000	95000	1	115000	100000	0	115000	95000	0	120000	100000	1	120000	95000	1	120000	100000	0	120000	95000	0	125000	100000	1	125000	95000	1	125000	100000	0	125000	95000	0	130000	100000	1	130000	95000	1	130000	100000	0	130000	95000	0	135000	100000	1	135000	95000	1	135000	100000	0	135000	95000	0	140000	100000	1	140000	95000	1	140000	100000	0	140000	95000	0	145000	100000	1	145000	95000	1	145000	100000	0	145000	95000	0	150000	100000	1	150000	95000	1	150000	100000	0	150000	95000	0	155000	100000	1	155000	95000	1	155000	100000	0	155000	95000	0	160000	100000	1	160000	95000	1	160000	100000	0	160000	95000	0	165000	100000	1	165000	95000	1	165000	100000	0	165000	95000	0	170000	100000	1	170000	95000	1	170000	100000	0	170000	95000	0	175000	100000	1	175000	95000	1	175000	100000	0	175000	95000	0	180000	100000	1	180000	95000	1	180000	100000	0	180000	95000	0	0	90000	1	5000	90000	1	0	90000	0	5000	90000	0	10000	90000	1	10000	90000	0	15000	90000	1	15000	90000	0	20000	90000	1	20000	90000	0	25000	90000	1	25000	90000	0	30000	90000	1	30000	90000	0	35000	90000	1	35000	90000	0	40000	90000	1	40000	90000	0	45000	90000	1	45000	90000	0	50000	90000	1	50000	90000	0	55000	90000	1	55000	90000	0	60000	90000	1	60000	90000	0	65000	90000	1	65000	90000	0	70000	90000	1	70000	90000	0	75000	90000	1	75000	90000	0	80000	90000	1	80000	90000	0	85000	90000	1	85000	90000	0	90000	90000	1	90000	90000	0	95000	90000	1	95000	90000	0	100000	90000	1	100000	90000	0	105000	90000	1	105000	90000	0	110000	90000	1	110000	90000	0	115000	90000	1	115000	90000	0	120000	90000	1	120000	90000	0	125000	90000	1	125000	90000	0	130000	90000	1	130000	90000	0	135000	90000	1	135000	90000	0	140000	90000	1	140000	90000	0	145000	90000	1	145000	90000	0	150000	90000	1	150000	90000	0	155000	90000	1	155000	90000	0	160000	90000	1	160000	90000	0	165000	90000	1	165000	90000	0	170000	90000	1	170000	90000	0	175000	90000	1	175000	90000	0	180000	90000	1	180000	90000	0	0	85000	1	5000	85000	1	0	85000	0	5000	85000	0	10000	85000	1	10000	85000	0	15000	85000	1	15000	85000	0	20000	85000	1	20000	85000	0	25000	85000	1	25000	85000	0	30000	85000	1	30000	85000	0	35000	85000	1	35000	85000	0	40000	85000	1	40000	85000	0	45000	85000	1	45000	85000	0	50000	85000	1	50000	85000	0	55000	85000	1	55000	85000	0	60000	85000	1	60000	85000	0	65000	85000	1	65000	85000	0	70000	85000	1	70000	85000	0	75000	85000	1	75000	85000	0	80000	85000	1	80000	85000	0	85000	85000	1	85000	85000	0	90000	85000	1	90000	85000	0	95000	85000	1	95000	85000	0	100000	85000	1	100000	85000	0	105000	85000	1	105000	85000	0	110000	85000	1	110000	85000	0	115000	85000	1	115000	85000	0	120000	85000	1	120000	85000	0	125000	85000	1	125000	85000	0	130000	85000	1	130000	85000	0	135000	85000	1	135000	85000	0	140000	85000	1	140000	85000	0	145000	85000	1	145000	85000	0	150000	85000	1	150000	85000	0	155000	85000	1	155000	85000	0	160000	85000	1	160000	85000	0	165000	85000	1	165000	85000	0	170000	85000	1	170000	85000	0	175000	85000	1	175000	85000	0	180000	85000	1	180000	85000	0	0	80000	1	5000	80000	1	0	80000	0	5000	80000	0	10000	80000	1	10000	80000	0	15000	80000	1	15000	80000	0	20000	80000	1	20000	80000	0	25000	80000	1	25000	80000	0	30000	80000	1	30000	80000	0	35000	80000	1	35000	80000	0	40000	80000	1	40000	80000	0	45000	80000	1	45000	80000	0	50000	80000	1	50000	80000	0	55000	80000	1	55000	80000	0	60000	80000	1	60000	80000	0	65000	80000	1	65000	80000	0	70000	80000	1	70000	80000	0	75000	80000	1	75000	80000	0	80000	80000	1	80000	80000	0	85000	80000	1	90000	80000	1	85000	80000	0	90000	80000	0	95000	80000	1	95000	80000	0	100000	80000	1	100000	80000	0	105000	80000	1	105000	80000	0	110000	80000	1	110000	80000	0	115000	80000	1	115000	80000	0	120000	80000	1	120000	80000	0	125000	80000	1	125000	80000	0	130000	80000	1	130000	80000	0	135000	80000	1	135000	80000	0	140000	80000	1	140000	80000	0	145000	80000	1	145000	80000	0	150000	80000	1	150000	80000	0	155000	80000	1	155000	80000	0	160000	80000	1	160000	80000	0	165000	80000	1	165000	80000	0	170000	80000	1	170000	80000	0	175000	80000	1	175000	80000	0	180000	80000	1	180000	80000	0	0	75000	1	5000	75000	1	0	75000	0	5000	75000	0	10000	75000	1	10000	75000	0	15000	75000	1	15000	75000	0	20000	75000	1	20000	75000	0	25000	75000	1	25000	75000	0	30000	75000	1	30000	75000	0	35000	75000	1	35000	75000	0	40000	75000	1	40000	75000	0	45000	75000	1	45000	75000	0	50000	75000	1	50000	75000	0	55000	75000	1	55000	75000	0	60000	75000	1	60000	75000	0	65000	75000	1	65000	75000	0	70000	75000	1	70000	75000	0	75000	75000	1	75000	75000	0	80000	75000	1	80000	75000	0	90000	75000	1	95000	75000	1	90000	75000	0	95000	75000	0	100000	75000	1	100000	75000	0	105000	75000	1	105000	75000	0	110000	75000	1	110000	75000	0	115000	75000	1	115000	75000	0	120000	75000	1	120000	75000	0	125000	75000	1	125000	75000	0	130000	75000	1	130000	75000	0	135000	75000	1	135000	75000	0	140000	75000	1	140000	75000	0	145000	75000	1	145000	75000	0	150000	75000	1	150000	75000	0	155000	75000	1	155000	75000	0	160000	75000	1	160000	75000	0	165000	75000	1	165000	75000	0	170000	75000	1	170000	75000	0	175000	75000	1	175000	75000	0	180000	75000	1	180000	75000	0	0	70000	1	5000	70000	1	0	70000	0	5000	70000	0	10000	70000	1	10000	70000	0	15000	70000	1	15000	70000	0	20000	70000	1	20000	70000	0	25000	70000	1	25000	70000	0	30000	70000	1	35000	70000	1	30000	70000	0	35000	70000	0	40000	70000	1	40000	70000	0	45000	70000	1	45000	70000	0	50000	70000	1	50000	70000	0	55000	70000	1	55000	70000	0	60000	70000	1	60000	70000	0	65000	70000	1	65000	70000	0	70000	70000	1	70000	70000	0	75000	70000	1	75000	70000	0	80000	70000	1	80000	70000	0	95000	70000	1	100000	70000	1	95000	70000	0	100000	70000	0	105000	70000	1	105000	70000	0	110000	70000	1	110000	70000	0	115000	70000	1	115000	70000	0	120000	70000	1	120000	70000	0	125000	70000	1	125000	70000	0	130000	70000	1	130000	70000	0	135000	70000	1	135000	70000	0	140000	70000	1	140000	70000	0	145000	70000	1	145000	70000	0	150000	70000	1	150000	70000	0	155000	70000	1	155000	70000	0	160000	70000	1	160000	70000	0	165000	70000	1	165000	70000	0	170000	70000	1	170000	70000	0	175000	70000	1	175000	70000	0	180000	70000	1	180000	70000	0	0	65000	1	5000	65000	1	0	65000	0	5000	65000	0	10000	65000	1	10000	65000	0	15000	65000	1	15000	65000	0	20000	65000	1	20000	65000	0	50000	65000	1	55000	65000	1	50000	65000	0	55000	65000	0	60000	65000	1	60000	65000	0	65000	65000	1	65000	65000	0	70000	65000	1	70000	65000	0	75000	65000	1	75000	65000	0	80000	65000	1	80000	65000	0	85000	70000	1	85000	65000	1	85000	70000	0	85000	65000	0	100000	65000	1	105000	65000	1	100000	65000	0	105000	65000	0	110000	65000	1	110000	65000	0	115000	65000	1	115000	65000	0	120000	65000	1	120000	65000	0	125000	65000	1	125000	65000	0	130000	65000	1	130000	65000	0	135000	65000	1	135000	65000	0	140000	65000	1	140000	65000	0	145000	65000	1	145000	65000	0	150000	65000	1	150000	65000	0	155000	65000	1	155000	65000	0	160000	65000	1	160000	65000	0	165000	65000	1	165000	65000	0	170000	65000	1	170000	65000	0	175000	65000	1	175000	65000	0	180000	65000	1	180000	65000	0	0	60000	1	5000	60000	1	0	60000	0	5000	60000	0	10000	60000	1	10000	60000	0	15000	60000	1	15000	60000	0	20000	60000	1	20000	60000	0	25000	65000	1	25000	60000	1	25000	65000	0	25000	60000	0	60000	60000	1	65000	60000	1	60000	60000	0	65000	60000	0	110000	60000	1	115000	60000	1	110000	60000	0	115000	60000	0	120000	60000	1	120000	60000	0	125000	60000	1	125000	60000	0	130000	60000	1	130000	60000	0	135000	60000	1	135000	60000	0	140000	60000	1	140000	60000	0	145000	60000	1	145000	60000	0	150000	60000	1	150000	60000	0	155000	60000	1	155000	60000	0	160000	60000	1	160000	60000	0	165000	60000	1	165000	60000	0	170000	60000	1	170000	60000	0	175000	60000	1	175000	60000	0	180000	60000	1	180000	60000	0	0	55000	1	5000	55000	1	0	55000	0	5000	55000	0	10000	55000	1	10000	55000	0	15000	55000	1	15000	55000	0	20000	55000	1	20000	55000	0	25000	55000	1	25000	55000	0	30000	60000	1	30000	55000	1	30000	60000	0	30000	55000	0	35000	60000	1	35000	55000	1	35000	60000	0	35000	55000	0	40000	60000	1	40000	55000	1	40000	60000	0	40000	55000	0	45000	60000	1	45000	55000	1	45000	60000	0	45000	55000	0	130000	55000	1	135000	55000	1	130000	55000	0	135000	55000	0	140000	55000	1	140000	55000	0	145000	55000	1	145000	55000	0	150000	55000	1	150000	55000	0	155000	55000	1	155000	55000	0	160000	55000	1	160000	55000	0	165000	55000	1	165000	55000	0	170000	55000	1	170000	55000	0	175000	55000	1	175000	55000	0	180000	55000	1	180000	55000	0	0	50000	1	5000	50000	1	0	50000	0	5000	5000
[...]
<CellData Scalars="scalars">
<DataArray type="Int32" Name="nodeid" format="ascii">1	2	3	4	5	6	7	8	9	10	11	12	13	14	15	16	17	18	19	20	21	22	23	24	25	26	27	28	29	30	31	32	33	34	35	36	37	38	39	40	41	42	43	44	45	46	47	48	49	50	51	52	53	54	55	56	57	58	59	60	61	62	63	64	65	66	67	68	69	70	71	72	73	74	75	76	77	78	79	80	81	82	83	84	85	86	87	88	89	90	91	92	93	94	95	96	97	98	99	100	101	102	103	104	105	106	107	108	109	110	111	112	113	114	115	116	117	118	119	120	121	122	123	124	721	722	724	723	126	127	128	129	130	131	132	133	134	135	136	137	138	139	140	141	142	143	144	145	146	147	148	149	150	151	152	153	154	155	156	157	158	159	160	725	729	730	732	731	733	734	736	735	727	737	738	740	741	742	744	743	163	164	165	166	167	168	169	170	171	172	173	174	175	176	177	178	179	180	181	182	183	184	185	745	746	748	747	187	188	189	190	191	192	193	194	195	196	749	750	752	751	757	758	760	759	761	762	764	763	765	766	768	767	755	769	770	772	773	774	776	775	200	201	202	203	204	205	206	207	208	209	210	211	212	213	214	215	216	217	218	219	220	777	778	780	779	785	786	788	787	782	793	794	796	795	789	790	792	791	797	798	800	799	801	802	804	803	805	806	808	807	809	810	812	811	227	228	229	230	231	232	233	813	814	816	815	821	822	824	823	818	829	830	832	831	825	826	828	827	833	834	836	835	237	238	239	240	241	242	243	244	245	246	247	248	249	250	251	252	253	254	255	256	257	837	841	842	844	843	840	839	849	850	852	851	853	854	856	855	848	847	861	862	864	863	865	866	868	867	860	859	873	874	876	875	877	878	880	879	872	871	885	886	888	887	882	893	894	896	895	889	890	892	891	897	898	905	906	908	907	901	902	904	903	909	910	912	913	914	916	915	265	917	918	920	919	921	922	924	923	925	926	928	927	929	930	932	931	933	934	936	935	937	941	942	944	943	945	946	948	947	939	949	950	957	958	960	959	953	954	956	955	961	962	964	965	966	968	967	969	970	972	971	275	276	277	278	279	280	281	282	283	284	285	286	287	288	289	290	291	292	293	294	295	296	297	973	974	976	975	977	978	980	979	985	986	988	987	989	990	992	991	993	994	996	995	983	997	998	1000	1001	1002	1004	1003	1009	1010	1012	1011	1013	1014	1016	1015	1021	1022	1024	1023	1017	1018	1020	1019	1029	1030	1032	1031	1033	1034	1036	1035	1041	1042	1044	1043	1037	1038	1040	1039	1049	1050	1052	1051	1053	1054	1056	1055	1061	1062	1064	1063	1057	1058	1060	1059	1069	1070	1072	1071	1073	1074	1076	1075	1081	1082	1084	1083	1077	1078	1080	1079	1089	1090	1092	1091	1093	1094	1096	1095	1101	1102	1104	1103	1097	1098	1100	1099	1105	1106	1108	1107	1109	1110	1112	1111	1117	1118	1120	1119	1121	1122	1124	1123	1116	1115	1129	1130	1132	1131	1126	1137	1138	1140	1139	1133	1134	1136	1135	1141	1142	1149	1150	1152	1151	1145	1146	1148	1147	1153	1154	1161	1162	1164	1163	1157	1158	1160	1159	1165	1166	1168	1169	1170	1172	1171	1173	1174	1176	1175	315	316	317	318	319	320	321	322	323	324	325	326	327	328	329	330	331	332	333	334	335	1177	1178	1180	1179	1185	1186	1188	1187	1189	1190	1192	1191	1193	1194	1196	1195	1183	1201	1202	1204	1203	1205	1206	1208	1207	1213	1214	1216	1215	1209	1210	1212	1211	1221	1222	1224	1223	1225	1226	1228	1227	1233	1234	1236	1235	1229	1230	1232	1231	1241	1242	1244	1243	1245	1246	1248	1247	1253	1254	1256	1255	1249	1250	1252	1251	1261	1262	1264	1263	1265	1266	1268	1267	1273	1274	1276	1275	1269	1270	1272	1271	1281	1282	1284	1283	1285	1286	1288	1287	1293	1294	1296	1295	1289	1290	1292	1291	1297	1298	1300	1299	344	345	1301	1302	1304	1303	1305	1306	1308	1307	1309	1310	1312	1311	1317	1318	1320	1319	1321	1322	1324	1323	1316	1315	1329	1330	1332	1331	1326	1337	1338	1340	1339	1333	1334	1336	1335	1341	1342	1344	1343	352	353	354	355	356	357	358	359	360	361	362	363	364	365	366	367	368	369	370	371	372	1345	1346	1348	1347	1353	1354	1356	1355	1357	1358	1360	1359	1365	1366	1368	1367	1361	1362	1364	1363	1373	1374	1376	1375	1377	1378	1380	1379	1385	1386	1388	1387	1381	1382	1384	1383	1393	1394	1396	1395	1397	1398	1400	1399	1405	1406	1408	1407	1401	1402	1404	1403	1413	1414	1416	1415	1417	1418	1420	1419	1425	1426	1428	1427	1421	1422	1424	1423	1433	1434	1436	1435	1437	1438	1440	1439	1445	1446	1448	1447	1441	1442	1444	1443	1449	1450	1452	1451	1453	1454	1456	1455	1457	1458	1460	1459	1461	1462	1464	1463	1465	1466	1468	1467	1469	1470	1477	1478	1480	1479	1473	1474	1476	1475	1481	1482	1484	1485	1486	1488	1487	1489	1493	1494	1496	1495	1492	1491	1501	1502	1504	1503	1498	1509	1510	1512	1511	1505	1506	1508	1507	1513	1514	1516	1517	1518	1520	1519	1521	1522	1524	1523	1525	1526	1533	1534	1536	1535	1529	1530	1532	1531	1537	1538	1545	1546	1548	1547	1541	1542	1544	1543	1549	1550	1557	1558	1560	1559	1553	1554	1556	1555	1561	1562	1569	1570	1572	1571	1565	1566	1568	1567	1573	1574	1576	1575	1577	1578	1580	1579	396	397	398	399	400	401	402	403	404	1581	1582	1584	1583	1585	1586	1588	1587	1589	1590	1597	1598	1600	1599	1593	1594	1596	1595	1601	1602	1609	1610	1612	1611	1605	1606	1608	1607	1613	1614	1621	1622	1624	1623	1617	1618	1620	1619	1629	1630	1632	1631	1633	1634	1636	1635	1641	1642	1644	1643	1637	1638	1640	1639	1649	1650	1652	1651	1653	1654	1656	1655	1661	1662	1664	1663	1657	1658	1660	1659	1669	1670	1672	1671	1673	1674	1676	1675	1681	1682	1684	1683	1677	1678	1680	1679	1689	1690	1692	1691	1693	1694	1696	1695	1701	1702	1704	1703	1697	1698	1700	1699	1709	1710	1712	1711	1713	1714	1716	1715	1721	1722	1724	1723	1717	1718	1720	1719	1729	1730	1732	1731	1733	1734	1736	1735	1728	1727	1741	1742	1744	1743	1745	1746	1748	1747	1740	1739	1753	1754	1756	1755	1757	1758	1760	1759	1765	1766	1768	1767	1761	1762	1764	1763	1773	1774	1776	1775	1777	1778	1780	1779	1772	1771	1785	1786	1788	1787	1789	1790	1792	1791	1784	1783	1797	1798	1800	1799	1794	1796	1795	1805	1806	1808	1807	1809	1810	1812	1811	1804	1803	1817	1818	1820	1819	1821	1822	1824	1823	1816	1815	1829	1830	1832	1831	1833	1834	1836	1835	1828	1827	1841	1842	1844	1843	1845	1846	1848	1847	1840	1839	1853	1854	1856	1855	1857	1858	1860	1859	1852	1851	1865	1866	1868	1867	1862	1864	1863	1869	1870	1872	1871	1873	1874	1876	1875	1877	1881	1882	1884	1883	1880	1879	1889	1890	1892	1891	1893	1894	1896	1895	1888	1887	1901	1902	1904	1903	1898	1909	1910	1912	1911	1905	1906	1908	1907	1913	1914	1921	1922	1924	1923	1917	1918	1920	1919	433	434	435	436	437	438	1925	1926	1928	1927	1929	1930	1933	1934	1936	1935	1931	1937	1941	1942	1944	1943	1949	1950	1952	1951	1945	1946	1948	1947	1957	1958	1960	1959	1961	1962	1964	1963	1956	1955	1969	1970	1972	1971	1966	1968	1967	1973	1974	1976	1975	1977	1978	1980	1979	1981	1982	1984	1983	1985	1986	1988	1987	1989	1990	1992	1991	1993	1994	1996	1995	1997	1998	2000	1999	2001	2002	2004	2003	2005	2009	2010	2012	2011	2017	2018	2020	2019	2013	2014	2016	2015	2025	2026	2028	2027	2022	2024	2023	454	455	456	457	458	459	460	461	462	463	464	465	466	2029	2030	2032	2031	2033	2034	2036	2035	469	470	471	472	2037	2038	2040	2039	2041	2042	2049	2050	2052	2051	2045	2046	2048	2047	2053	2057	2058	2060	2059	2065	2066	2068	2067	2061	2062	2064	2063	2073	2074	2076	2075	2077	2078	2080	2079	2072	2071	2081	2082	2084	2083	478	479	480	481	482	483	484	2085	2086	2088	2087	2089	2090	2097	2098	2100	2099	2093	2094	2096	2095	2105	2106	2108	2107	2109	2110	2112	2111	2104	2113	2114	2116	2115	2121	2122	2124	2123	2118	2120	2119	489	490	491	492	493	494	495	496	497	498	499	500	501	502	503	504	505	506	507	508	2125	2126	2128	2127	2133	2134	2136	2135	2130	2132	2131	2137	2138	2140	2139	512	513	514	515	516	517	518	2141	2142	2144	2143	2145	2146	2153	2154	2156	2155	2149	2150	2152	2151	2161	2162	2164	2163	2165	2166	2168	2167	2160	2169	2170	2172	2171	2177	2178	2180	2179	2174	2176	2175	2181	2182	2184	2183	524	525	526	527	528	529	530	531	532	533	534	535	536	537	538	539	540	541	542	543	544	545	546	547	548	549	550	551	552	2185	2186	2188	2187	2189	2190	2197	2198	2200	2199	2193	2194	2196	2195	2205	2206	2208	2207	2209	2210	2212	2211	2204	2213	2214	2216	2215	2221	2222	2224	2223	2218	2220	2219	2225	2226	2228	2227	558	559	560	561	562	563	564	565	566	567	568	569	570	571	572	573	574	575	576	577	578	579	580	581	582	583	584	585	586	587	588	2229	2233	2234	2236	2235	2232	2231	2241	2242	2244	2243	2238	2240	2239	2245	2246	2248	2247	592	593	594	595	596	597	598	599	600	601	602	603	604	605	606	607	608	609	610	611	612	613	614	615	616	617	618	619	620	621	622	623	624	625	626	627	628	629	630	631	632	633	634	635	636	637	638	639	640	641	642	643	644	645	646	647	648	649	650	651	652	653	654	655	656	657	658	659	660	661	662	663	664	665	666	667	668	669	670	671	672	673	674	675	676	677	678	679	680	681	682	683	684	685	686	687	688	689	690	691	692	693	694	695	696	697	698	699	700	701	702	703	704	705	706	707	708	709	710	711	712	713	714	715	716	717	718	719	720	</DataArray>
<DataArray type="Int32" Name="nodenumber" format="ascii">1	2	3	4	5	6	7	8	9	10	11	12	13	14	15	16	17	18	19	20	21	22	23	24	25	26	27	28	29	30	31	32	33	34	35	36	37	38	39	40	41	42	43	44	45	46	47	48	49	50	51	52	53	54	55	56	57	58	59	60	61	62	63	64	65	66	67	68	69	70	71	72	73	74	75	76	77	78	79	80	81	82	83	84	85	86	87	88	89	90	91	92	93	94	95	96	97	98	99	100	101	102	103	104	105	106	107	108	109	110	111	112	113	114	115	116	117	118	119	120	121	122	123	124	125	126	128	127	129	130	131	132	133	134	135	136	137	138	139	140	141	142	143	144	145	146	147	148	149	150	151	152	153	154	155	156	157	158	159	160	161	162	163	164	165	166	168	167	170	171	173	172	169	174	175	180	176	177	179	178	181	182	183	184	185	186	187	188	189	190	191	192	193	194	195	196	197	198	199	200	201	202	203	204	205	207	206	208	209	210	211	212	213	214	215	216	217	218	219	221	220	222	223	225	224	226	227	229	228	231	232	234	233	230	235	236	241	237	238	240	239	242	243	244	245	246	247	248	249	250	251	252	253	254	255	256	257	258	259	260	261	262	263	264	266	265	267	268	270	269	271	276	277	279	278	272	273	275	274	280	281	283	282	284	285	287	286	288	289	291	290	292	293	295	294	296	297	298	299	300	301	302	303	304	306	305	307	308	310	309	311	316	317	319	318	312	313	315	314	320	321	323	322	324	325	326	327	328	329	330	331	332	333	334	335	336	337	338	339	340	341	342	343	344	345	346	347	349	348	351	350	352	353	355	354	356	357	359	358	361	360	362	363	365	364	366	367	369	368	371	370	372	373	375	374	376	377	379	378	381	380	382	383	385	384	386	391	392	394	393	387	388	390	389	395	396	401	402	404	403	397	398	400	399	405	406	411	407	408	410	409	412	413	414	416	415	417	418	420	419	421	422	424	423	425	426	428	427	429	430	432	431	433	434	435	437	436	439	440	442	441	438	443	444	449	450	452	451	445	446	448	447	453	454	459	455	456	458	457	460	461	463	462	464	465	466	467	468	469	470	471	472	473	474	475	476	477	478	479	480	481	482	483	484	485	486	487	488	490	489	491	492	494	493	495	496	498	497	499	500	502	501	504	505	507	506	503	508	509	514	510	511	513	512	515	516	518	517	519	520	522	521	527	528	530	529	523	524	526	525	531	532	534	533	535	536	538	537	543	544	546	545	539	540	542	541	547	548	550	549	551	552	554	553	559	560	562	561	555	556	558	557	563	564	566	565	567	568	570	569	575	576	578	577	571	572	574	573	579	580	582	581	583	584	586	585	591	592	594	593	587	588	590	589	595	596	598	597	599	600	602	601	603	604	606	605	607	608	610	609	612	611	613	614	616	615	617	622	623	625	624	618	619	621	620	626	627	632	633	635	634	628	629	631	630	636	637	642	643	645	644	638	639	641	640	646	647	652	648	649	651	650	653	654	656	655	657	658	659	660	661	662	663	664	665	666	667	668	669	670	671	672	673	674	675	676	677	678	679	681	680	682	683	685	684	686	687	689	688	691	692	694	693	690	695	696	698	697	699	700	702	701	707	708	710	709	703	704	706	705	711	712	714	713	715	716	718	717	723	724	726	725	719	720	722	721	727	728	730	729	731	732	734	733	739	740	742	741	735	736	738	737	743	744	746	745	747	748	750	749	755	756	758	757	751	752	754	753	759	760	762	761	763	764	766	765	771	772	774	773	767	768	770	769	775	776	778	777	779	780	781	782	784	783	785	786	788	787	789	790	792	791	793	794	796	795	797	798	800	799	802	801	803	804	806	805	807	812	813	815	814	808	809	811	810	816	817	819	818	820	821	822	823	824	825	826	827	828	829	830	831	832	833	834	835	836	837	838	839	840	841	842	844	843	845	846	848	847	849	850	852	851	857	858	860	859	853	854	856	855	861	862	864	863	865	866	868	867	873	874	876	875	869	870	872	871	877	878	880	879	881	882	884	883	889	890	892	891	885	886	888	887	893	894	896	895	897	898	900	899	905	906	908	907	901	902	904	903	909	910	912	911	913	914	916	915	921	922	924	923	917	918	920	919	925	926	928	927	929	930	932	931	933	934	936	935	937	938	940	939	941	942	944	943	945	946	951	952	954	953	947	948	950	949	955	956	961	957	958	960	959	962	963	964	966	965	968	967	969	970	972	971	973	978	979	981	980	974	975	977	976	982	983	988	984	985	987	986	989	990	992	991	993	994	999	1000	1002	1001	995	996	998	997	1003	1004	1009	1010	1012	1011	1005	1006	1008	1007	1013	1014	1019	1020	1022	1021	1015	1016	1018	1017	1023	1024	1029	1030	1032	1031	1025	1026	1028	1027	1033	1034	1036	1035	1037	1038	1040	1039	1041	1042	1043	1044	1045	1046	1047	1048	1049	1050	1051	1053	1052	1054	1055	1057	1056	1058	1059	1064	1065	1067	1066	1060	1061	1063	1062	1068	1069	1074	1075	1077	1076	1070	1071	1073	1072	1078	1079	1084	1085	1087	1086	1080	1081	1083	1082	1088	1089	1091	1090	1092	1093	1095	1094	1100	1101	1103	1102	1096	1097	1099	1098	1104	1105	1107	1106	1108	1109	1111	1110	1116	1117	1119	1118	1112	1113	1115	1114	1120	1121	1123	1122	1124	1125	1127	1126	1132	1133	1135	1134	1128	1129	1131	1130	1136	1137	1139	1138	1140	1141	1143	1142	1148	1149	1151	1150	1144	1145	1147	1146	1152	1153	1155	1154	1156	1157	1159	1158	1164	1165	1167	1166	1160	1161	1163	1162	1168	1169	1171	1170	1172	1173	1175	1174	1177	1176	1178	1179	1181	1180	1182	1183	1185	1184	1187	1186	1188	1189	1191	1190	1192	1193	1195	1194	1200	1201	1203	1202	1196	1197	1199	1198	1204	1205	1207	1206	1208	1209	1211	1210	1213	1212	1214	1215	1217	1216	1218	1219	1221	1220	1223	1222	1224	1225	1227	1226	1228	1230	1229	1231	1232	1234	1233	1235	1236	1238	1237	1240	1239	1241	1242	1244	1243	1245	1246	1248	1247	1250	1249	1251	1252	1254	1253	1255	1256	1258	1257	1260	1259	1261	1262	1264	1263	1265	1266	1268	1267	1270	1269	1271	1272	1274	1273	1275	1276	1278	1277	1280	1279	1281	1282	1284	1283	1285	1287	1286	1288	1289	1291	1290	1292	1293	1295	1294	1296	1297	1298	1300	1299	1302	1301	1303	1304	1306	1305	1307	1308	1310	1309	1312	1311	1313	1314	1316	1315	1317	1322	1323	1325	1324	1318	1319	1321	1320	1326	1327	1332	1333	1335	1334	1328	1329	1331	1330	1336	1337	1338	1339	1340	1341	1342	1343	1345	1344	1346	1347	1349	1350	1352	1351	1348	1353	1354	1355	1357	1356	1362	1363	1365	1364	1358	1359	1361	1360	1366	1367	1369	1368	1370	1371	1373	1372	1375	1374	1376	1377	1379	1378	1380	1382	1381	1383	1384	1386	1385	1387	1388	1390	1389	1391	1392	1394	1393	1395	1396	1398	1397	1399	1400	1402	1401	1403	1404	1406	1405	1407	1408	1410	1409	1411	1412	1414	1413	1415	1416	1417	1419	1418	1424	1425	1427	1426	1420	1421	1423	1422	1428	1429	1431	1430	1432	1434	1433	1435	1436	1437	1438	1439	1440	1441	1442	1443	1444	1445	1446	1447	1448	1449	1451	1450	1452	1453	1455	1454	1456	1457	1458	1459	1460	1461	1463	1462	1464	1465	1470	1471	1473	1472	1466	1467	1469	1468	1474	1475	1476	1478	1477	1483	1484	1486	1485	1479	1480	1482	1481	1487	1488	1490	1489	1491	1492	1494	1493	1496	1495	1497	1498	1500	1499	1501	1502	1503	1504	1505	1506	1507	1508	1509	1511	1510	1512	1513	1518	1519	1521	1520	1514	1515	1517	1516	1522	1523	1525	1524	1526	1527	1529	1528	1534	1530	1531	1533	1532	1535	1536	1538	1537	1539	1541	1540	1542	1543	1544	1545	1546	1547	1548	1549	1550	1551	1552	1553	1554	1555	1556	1557	1558	1559	1560	1561	1562	1563	1565	1564	1566	1567	1569	1568	1570	1572	1571	1573	1574	1576	1575	1577	1578	1579	1580	1581	1582	1583	1584	1585	1587	1586	1588	1589	1594	1595	1597	1596	1590	1591	1593	1592	1598	1599	1601	1600	1602	1603	1605	1604	1610	1606	1607	1609	1608	1611	1612	1614	1613	1615	1617	1616	1618	1619	1621	1620	1622	1623	1624	1625	1626	1627	1628	1629	1630	1631	1632	1633	1634	1635	1636	1637	1638	1639	1640	1641	1642	1643	1644	1645	1646	1647	1648	1649	1650	1651	1652	1654	1653	1655	1656	1661	1662	1664	1663	1657	1658	1660	1659	1665	1666	1668	1667	1669	1670	1672	1671	1677	1673	1674	1676	1675	1678	1679	1681	1680	1682	1684	1683	1685	1686	1688	1687	1689	1690	1691	1692	1693	1694	1695	1696	1697	1698	1699	1700	1701	1702	1703	1704	1705	1706	1707	1708	1709	1710	1711	1712	1713	1714	1715	1716	1717	1718	1719	1720	1721	1722	1724	1723	1726	1725	1727	1728	1730	1729	1731	1733	1732	1734	1735	1737	1736	1738	1739	1740	1741	1742	1743	1744	1745	1746	1747	1748	1749	1750	1751	1752	1753	1754	1755	1756	1757	1758	1759	1760	1761	1762	1763	1764	1765	1766	1767	1768	1769	1770	1771	1772	1773	1774	1775	1776	1777	1778	1779	1780	1781	1782	1783	1784	1785	1786	1787	1788	1789	1790	1791	1792	1793	1794	1795	1796	1797	1798	1799	1800	1801	1802	1803	1804	1805	1806	1807	1808	1809	1810	1811	1812	1813	1814	1815	1816	1817	1818	1819	1820	1821	1822	1823	1824	1825	1826	1827	1828	1829	1830	1831	1832	1833	1834	1835	1836	1837	1838	1839	1840	1841	1842	1843	1844	1845	1846	1847	1848	1849	1850	1851	1852	1853	1854	1855	1856	1857	1858	1859	1860	1861	1862	1863	1864	1865	1866	</DataArray>